<?xml version='1.0'?>
<VTKFile type='RectilinearGrid' version='0.1' byte_order='LittleEndian'>
    <RectilinearGrid WholeExtent='0 11 0 11 0 0'>
        <Piece Extent='0 11 0 11 0 0'>
            <Coordinates>
                <DataArray type='Float64' format='ascii'>
                 0.00000000E+00   0.10000000E+01   0.20000000E+01   0.30000000E+01   0.40000000E+01   0.50000000E+01   0.60000000E+01   0.70000000E+01   0.80000000E+01   0.90000000E+01   0.10000000E+02   0.11000000E+02 
                </DataArray>
                <DataArray type='Float64' format='ascii'>
                 0.00000000E+00   0.10000000E+01   0.20000000E+01   0.30000000E+01   0.40000000E+01   0.50000000E+01   0.60000000E+01   0.70000000E+01   0.80000000E+01   0.90000000E+01   0.10000000E+02   0.11000000E+02 
                </DataArray>
                <DataArray type='Float64' format='ascii'>
                 0.00000000E+00   0.00000000E+00
                </DataArray>
            </Coordinates>
            <CellData>
                <DataArray type='Float64' Name='density' format='ascii'>
  0.50000000E+01   0.50000000E+01   0.50000000E+01   0.50000000E+01   0.50000000E+01   0.50000000E+01   0.50000000E+01   0.50000000E+01   0.50000000E+01   0.50000000E+01   0.50000000E+01   0.50000000E+01   0.50000000E+01   0.50000000E+01   0.50000000E+01   0.50000000E+01   0.50000000E+01   0.50000000E+01   0.50000000E+01   0.50000000E+01   0.50000000E+01   0.50000000E+01   0.50000000E+01   0.50000000E+01   0.50000000E+01   0.50000000E+01   0.50000000E+01   0.50000000E+01   0.50000000E+01   0.50000000E+01   0.50000000E+01   0.50000000E+01   0.50000000E+01   0.50000000E+01   0.50000000E+01   0.50000000E+01   0.50000000E+01   0.50000000E+01   0.50000000E+01   0.50000000E+01   0.50000000E+01   0.50000000E+01   0.50000000E+01   0.50000000E+01   0.50000000E+01   0.50000000E+01   0.50000000E+01   0.50000000E+01   0.50000000E+01   0.50000000E+01   0.50000000E+01   0.50000000E+01   0.50000000E+01   0.50000000E+01   0.50000000E+01   0.50000000E+01   0.50000000E+01   0.50000000E+01   0.50000000E+01   0.50000000E+01   0.50000000E+01   0.50000000E+01   0.50000000E+01   0.50000000E+01   0.50000000E+01   0.50000000E+01   0.50000000E+01   0.50000000E+01   0.50000000E+01   0.50000000E+01   0.50000000E+01   0.50000000E+01   0.50000000E+01   0.50000000E+01   0.50000000E+01   0.50000000E+01   0.50000000E+01   0.50000000E+01   0.50000000E+01   0.50000000E+01   0.50000000E+01   0.50000000E+01   0.50000000E+01   0.50000000E+01   0.50000000E+01   0.50000000E+01   0.50000000E+01   0.50000000E+01   0.50000000E+01   0.50000000E+01   0.50000000E+01   0.50000000E+01   0.50000000E+01   0.50000000E+01   0.50000000E+01   0.50000000E+01   0.50000000E+01   0.50000000E+01   0.50000000E+01   0.50000000E+01   0.50000000E+01   0.50000000E+01   0.50000000E+01   0.50000000E+01   0.50000000E+01   0.50000000E+01   0.50000000E+01   0.50000000E+01   0.50000000E+01   0.50000000E+01   0.50000000E+01   0.50000000E+01   0.50000000E+01   0.50000000E+01   0.50000000E+01   0.50000000E+01   0.50000000E+01   0.50000000E+01   0.50000000E+01   0.50000000E+01   0.50000000E+01 
                </DataArray>
                <DataArray type='Float64' Name='x-velocity' format='ascii'>
  0.00000000E+00   0.00000000E+00   0.00000000E+00   0.00000000E+00   0.00000000E+00   0.00000000E+00   0.00000000E+00   0.00000000E+00   0.00000000E+00   0.00000000E+00   0.00000000E+00   0.00000000E+00   0.00000000E+00   0.00000000E+00   0.00000000E+00   0.00000000E+00   0.00000000E+00   0.00000000E+00   0.00000000E+00   0.00000000E+00   0.00000000E+00   0.00000000E+00   0.00000000E+00   0.00000000E+00   0.00000000E+00   0.00000000E+00   0.00000000E+00   0.00000000E+00   0.00000000E+00   0.00000000E+00   0.00000000E+00   0.00000000E+00   0.00000000E+00   0.00000000E+00   0.00000000E+00   0.00000000E+00   0.00000000E+00   0.00000000E+00   0.00000000E+00   0.00000000E+00   0.00000000E+00   0.00000000E+00   0.00000000E+00   0.00000000E+00   0.00000000E+00   0.00000000E+00   0.00000000E+00   0.00000000E+00   0.00000000E+00   0.00000000E+00   0.00000000E+00   0.00000000E+00   0.00000000E+00   0.00000000E+00   0.00000000E+00   0.00000000E+00   0.00000000E+00   0.00000000E+00   0.00000000E+00   0.00000000E+00   0.00000000E+00   0.00000000E+00   0.00000000E+00   0.00000000E+00   0.00000000E+00   0.00000000E+00   0.00000000E+00   0.00000000E+00   0.00000000E+00   0.00000000E+00   0.00000000E+00   0.00000000E+00   0.00000000E+00   0.00000000E+00   0.00000000E+00   0.00000000E+00   0.00000000E+00   0.00000000E+00   0.00000000E+00   0.00000000E+00   0.00000000E+00   0.00000000E+00   0.00000000E+00   0.00000000E+00   0.00000000E+00   0.00000000E+00   0.00000000E+00   0.00000000E+00   0.00000000E+00   0.00000000E+00   0.00000000E+00   0.00000000E+00   0.00000000E+00   0.00000000E+00   0.00000000E+00   0.00000000E+00   0.00000000E+00   0.00000000E+00   0.00000000E+00   0.00000000E+00   0.00000000E+00   0.00000000E+00   0.00000000E+00   0.00000000E+00   0.00000000E+00   0.00000000E+00   0.00000000E+00   0.00000000E+00   0.00000000E+00   0.00000000E+00   0.00000000E+00   0.00000000E+00   0.00000000E+00   0.00000000E+00   0.00000000E+00   0.00000000E+00   0.00000000E+00   0.00000000E+00   0.00000000E+00   0.00000000E+00   0.00000000E+00 
                </DataArray>
                <DataArray type='Float64' Name='y-velocity' format='ascii'>
  0.00000000E+00   0.00000000E+00   0.00000000E+00   0.00000000E+00   0.00000000E+00   0.00000000E+00   0.00000000E+00   0.00000000E+00   0.00000000E+00   0.00000000E+00   0.00000000E+00   0.00000000E+00   0.00000000E+00   0.00000000E+00   0.00000000E+00   0.00000000E+00   0.00000000E+00   0.00000000E+00   0.00000000E+00   0.00000000E+00   0.00000000E+00   0.00000000E+00   0.00000000E+00   0.00000000E+00   0.00000000E+00   0.00000000E+00   0.00000000E+00   0.00000000E+00   0.00000000E+00   0.00000000E+00   0.00000000E+00   0.00000000E+00   0.00000000E+00   0.00000000E+00   0.00000000E+00   0.00000000E+00   0.00000000E+00   0.00000000E+00   0.00000000E+00   0.00000000E+00   0.00000000E+00   0.00000000E+00   0.00000000E+00   0.00000000E+00   0.00000000E+00   0.00000000E+00   0.00000000E+00   0.00000000E+00   0.00000000E+00   0.00000000E+00   0.00000000E+00   0.00000000E+00   0.00000000E+00   0.00000000E+00   0.00000000E+00   0.00000000E+00   0.00000000E+00   0.00000000E+00   0.00000000E+00   0.00000000E+00   0.00000000E+00   0.00000000E+00   0.00000000E+00   0.00000000E+00   0.00000000E+00   0.00000000E+00   0.00000000E+00   0.00000000E+00   0.00000000E+00   0.00000000E+00   0.00000000E+00   0.00000000E+00   0.00000000E+00   0.00000000E+00   0.00000000E+00   0.00000000E+00   0.00000000E+00   0.00000000E+00   0.00000000E+00   0.00000000E+00   0.00000000E+00   0.00000000E+00   0.00000000E+00   0.00000000E+00   0.00000000E+00   0.00000000E+00   0.00000000E+00   0.00000000E+00   0.00000000E+00   0.00000000E+00   0.00000000E+00   0.00000000E+00   0.00000000E+00   0.00000000E+00   0.00000000E+00   0.00000000E+00   0.00000000E+00   0.00000000E+00   0.00000000E+00   0.00000000E+00   0.00000000E+00   0.00000000E+00   0.00000000E+00   0.00000000E+00   0.00000000E+00   0.00000000E+00   0.00000000E+00   0.00000000E+00   0.00000000E+00   0.00000000E+00   0.00000000E+00   0.00000000E+00   0.00000000E+00   0.00000000E+00   0.00000000E+00   0.00000000E+00   0.00000000E+00   0.00000000E+00   0.00000000E+00   0.00000000E+00   0.00000000E+00 
                </DataArray>
            </CellData>
        </Piece>
    </RectilinearGrid>
</VTKFile>
